data_NIMS_MatNavi_4295217503_1_2

#
# COPYRIGHT NOTICE
#
# This CIF data is created using data from from AtomWork-adv, published
# 2016/10 by National Institute for Materials Science (NIMS), Tsukuba, Japan.
# Copyright 2010-2019 by NIMS and Materials Phases Data system (MPDS),
# Vitznau, Switzerland. All Rights Reserved.
#
# DISCLAIMER
#
# The values reported here are taken from the literature and other sources and
# the author does not warrant their correctness nor accept any
# responsibility for errors. Users are advised to consult the primary sources.
#

_chemical_formula_sum 'La0.3 Y0.7'
_space_group_crystal_system hexagonal
_symmetry_space_group_name_H-M 'P 63/m m c'
_symmetry_Int_Tables_number 194

# @substance 6534814957835404150
# @recommended

loop_
    _symmetry_equiv_pos_site_id
    _symmetry_equiv_pos_as_xyz
1 x,y,z
2 -y,x-y,z
3 -x+y,-x,z
4 -x,-y,z+1/2
5 y,-x+y,z+1/2
6 x-y,x,z+1/2
7 y,x,-z
8 x-y,-y,-z
9 -x,-x+y,-z
10 -y,-x,-z+1/2
11 -x+y,y,-z+1/2
12 x,x-y,-z+1/2
13 -x,-y,-z
14 y,-x+y,-z
15 x-y,x,-z
16 x,y,-z+1/2
17 -y,x-y,-z+1/2
18 -x+y,-x,-z+1/2
19 -y,-x,z
20 -x+y,y,z
21 x,x-y,z
22 y,x,z+1/2
23 x-y,-y,z+1/2
24 -x,-x+y,z+1/2

_cell_length_a 3.7021
_cell_length_b 3.7021
_cell_length_c 5.8437
_cell_angle_alpha 90
_cell_angle_beta 90
_cell_angle_gamma 120
_cell_volume 69.36
_cell_formula_units_Z 2

loop_
    _atom_site_label
    _atom_site_fract_x
    _atom_site_fract_y
    _atom_site_fract_z
    _atom_site_occupancy
    _atom_site_symmetry_multiplicity
    _atom_site_Wyckoff_symbol
    _atom_site_U_iso_or_equiv
    _atom_site_type_symbol
M 0.333333 0.666667 0.25 0.70 2 c ? Y
M 0.333333 0.666667 0.25 0.30 2 c ? La

_publ_section_title 'The constitution of yttrium-cerium and yttrium-lanthanum alloys, with special reference to lattice spacings'
_journal_coden_ASTM JCOMAH
_journal_name_full 'J. Less-Common Met.'
_journal_year 1964
_journal_volume 7
_journal_page_first 1
_journal_page_last 10
_journal_language English

loop_
    _publ_author_name
'Harris I.R.'
'Raynor G.V.'
